                         Program Version 6.0.0  -   RELEASE  -
|  1> %pal nprocs 24 end
|  2> !ENGRAD PBE0 def2-SVP
|  3> *xyzfile 0 1 butane_cut.xyz
|  4>
|  5>                          ****END OF INPUT****

CARTESIAN COORDINATES (ANGSTROEM)
---------------------------------
  C     52.000000   42.043100   46.800000
  H     52.000000   42.674200   47.692400
  H     52.000000   42.674200   45.907600
  H     51.107600   41.412100   46.800000
  C     53.253300   41.156900   46.800000
  H     53.253300   40.525800   45.907600
  H     53.253300   40.525800   47.692400
  C     54.506600   42.043100   46.800000
  H     54.506600   42.674200   47.692400
  H     54.506600   42.674200   45.907600
  C     55.760000   41.156900   46.800000
  H     55.760000   40.525800   47.692400
  H     55.760000   40.525800   45.907600
  H     56.652400   41.787900   46.800000
  C     41.600000   47.243100   46.800000
  H     41.600000   47.874200   47.692400
  H     41.600000   47.874200   45.907600
  H     40.707600   46.612100   46.800000
  C     42.853300   46.356900   46.800000
  H     42.853300   45.725800   45.907600
  H     42.853300   45.725800   47.692400
  C     44.106600   47.243100   46.800000
  H     44.106600   47.874200   47.692400
  H     44.106600   47.874200   45.907600
  C     45.360000   46.356900   46.800000
  H     45.360000   45.725800   47.692400
  H     45.360000   45.725800   45.907600
  H     46.252400   46.987900   46.800000
  C     52.000000   47.243100   46.800000
  H     52.000000   47.874200   47.692400
  H     52.000000   47.874200   45.907600
  H     51.107600   46.612100   46.800000
  C     53.253300   46.356900   46.800000
  H     53.253300   45.725800   45.907600
  H     53.253300   45.725800   47.692400
  C     54.506600   47.243100   46.800000
  H     54.506600   47.874200   47.692400
  H     54.506600   47.874200   45.907600
  C     55.760000   46.356900   46.800000
  H     55.760000   45.725800   47.692400
  H     55.760000   45.725800   45.907600
  H     56.652400   46.987900   46.800000
  C     41.600000   52.443100   46.800000
  H     41.600000   53.074200   47.692400
  H     41.600000   53.074200   45.907600
  H     40.707600   51.812100   46.800000
  C     42.853300   51.556900   46.800000
  H     42.853300   50.925800   45.907600
  H     42.853300   50.925800   47.692400
  C     44.106600   52.443100   46.800000
  H     44.106600   53.074200   47.692400
  H     44.106600   53.074200   45.907600
  C     45.360000   51.556900   46.800000
  H     45.360000   50.925800   47.692400
  H     45.360000   50.925800   45.907600
  H     46.252400   52.187900   46.800000
  C     52.000000   52.443100   46.800000
  H     52.000000   53.074200   47.692400
  H     52.000000   53.074200   45.907600
  H     51.107600   51.812100   46.800000
  C     53.253300   51.556900   46.800000
  H     53.253300   50.925800   45.907600
  H     53.253300   50.925800   47.692400
  C     54.506600   52.443100   46.800000
  H     54.506600   53.074200   47.692400
  H     54.506600   53.074200   45.907600
  C     55.760000   51.556900   46.800000
  H     55.760000   50.925800   47.692400
  H     55.760000   50.925800   45.907600
  H     56.652400   52.187900   46.800000
  C     52.000000   57.643100   46.800000
  H     52.000000   58.274200   47.692400
  H     52.000000   58.274200   45.907600
  H     51.107600   57.012100   46.800000
  C     53.253300   56.756900   46.800000
  H     53.253300   56.125800   45.907600
  H     53.253300   56.125800   47.692400
  C     54.506600   57.643100   46.800000
  H     54.506600   58.274200   47.692400
  H     54.506600   58.274200   45.907600
  C     55.760000   56.756900   46.800000
  H     55.760000   56.125800   47.692400
  H     55.760000   56.125800   45.907600
  H     56.652400   57.387900   46.800000
  C     52.000000   42.043100   52.000000
  H     52.000000   42.674200   52.892400
  H     52.000000   42.674200   51.107600
  H     51.107600   41.412100   52.000000
  C     53.253300   41.156900   52.000000
  H     53.253300   40.525800   51.107600
  H     53.253300   40.525800   52.892400
  C     54.506600   42.043100   52.000000
  H     54.506600   42.674200   52.892400
  H     54.506600   42.674200   51.107600
  C     55.760000   41.156900   52.000000
  H     55.760000   40.525800   52.892400
  H     55.760000   40.525800   51.107600
  H     56.652400   41.787900   52.000000
  C     41.600000   47.243100   52.000000
  H     41.600000   47.874200   52.892400
  H     41.600000   47.874200   51.107600
  H     40.707600   46.612100   52.000000
  C     42.853300   46.356900   52.000000
  H     42.853300   45.725800   51.107600
  H     42.853300   45.725800   52.892400
  C     44.106600   47.243100   52.000000
  H     44.106600   47.874200   52.892400
  H     44.106600   47.874200   51.107600
  C     45.360000   46.356900   52.000000
  H     45.360000   45.725800   52.892400
  H     45.360000   45.725800   51.107600
  H     46.252400   46.987900   52.000000
  C     52.000000   47.243100   52.000000
  H     52.000000   47.874200   52.892400
  H     52.000000   47.874200   51.107600
  H     51.107600   46.612100   52.000000
  C     53.253300   46.356900   52.000000
  H     53.253300   45.725800   51.107600
  H     53.253300   45.725800   52.892400
  C     54.506600   47.243100   52.000000
  H     54.506600   47.874200   52.892400
  H     54.506600   47.874200   51.107600
  C     55.760000   46.356900   52.000000
  H     55.760000   45.725800   52.892400
  H     55.760000   45.725800   51.107600
  H     56.652400   46.987900   52.000000
  C     41.600000   52.443100   52.000000
  H     41.600000   53.074200   52.892400
  H     41.600000   53.074200   51.107600
  H     40.707600   51.812100   52.000000
  C     42.853300   51.556900   52.000000
  H     42.853300   50.925800   51.107600
  H     42.853300   50.925800   52.892400
  C     44.106600   52.443100   52.000000
  H     44.106600   53.074200   52.892400
  H     44.106600   53.074200   51.107600
  C     45.360000   51.556900   52.000000
  H     45.360000   50.925800   52.892400
  H     45.360000   50.925800   51.107600
  H     46.252400   52.187900   52.000000
  C     52.000000   52.443100   52.000000
  H     52.000000   53.074200   52.892400
  H     52.000000   53.074200   51.107600
  H     51.107600   51.812100   52.000000
  C     53.253300   51.556900   52.000000
  H     53.253300   50.925800   51.107600
  H     53.253300   50.925800   52.892400
  C     54.506600   52.443100   52.000000
  H     54.506600   53.074200   52.892400
  H     54.506600   53.074200   51.107600
  C     55.760000   51.556900   52.000000
  H     55.760000   50.925800   52.892400
  H     55.760000   50.925800   51.107600
  H     56.652400   52.187900   52.000000
  C     41.600000   57.643100   52.000000
  H     41.600000   58.274200   52.892400
  H     41.600000   58.274200   51.107600
  H     40.707600   57.012100   52.000000
  C     42.853300   56.756900   52.000000
  H     42.853300   56.125800   51.107600
  H     42.853300   56.125800   52.892400
  C     44.106600   57.643100   52.000000
  H     44.106600   58.274200   52.892400
  H     44.106600   58.274200   51.107600
  C     45.360000   56.756900   52.000000
  H     45.360000   56.125800   52.892400
  H     45.360000   56.125800   51.107600
  H     46.252400   57.387900   52.000000
  C     52.000000   57.643100   52.000000
  H     52.000000   58.274200   52.892400
  H     52.000000   58.274200   51.107600
  H     51.107600   57.012100   52.000000
  C     53.253300   56.756900   52.000000
  H     53.253300   56.125800   51.107600
  H     53.253300   56.125800   52.892400
  C     54.506600   57.643100   52.000000
  H     54.506600   58.274200   52.892400
  H     54.506600   58.274200   51.107600
  C     55.760000   56.756900   52.000000
  H     55.760000   56.125800   52.892400
  H     55.760000   56.125800   51.107600
  H     56.652400   57.387900   52.000000
  C     52.000000   47.243100   57.200000
  H     52.000000   47.874200   58.092400
  H     52.000000   47.874200   56.307600
  H     51.107600   46.612100   57.200000
  C     53.253300   46.356900   57.200000
  H     53.253300   45.725800   56.307600
  H     53.253300   45.725800   58.092400
  C     54.506600   47.243100   57.200000
  H     54.506600   47.874200   58.092400
  H     54.506600   47.874200   56.307600
  C     55.760000   46.356900   57.200000
  H     55.760000   45.725800   58.092400
  H     55.760000   45.725800   56.307600
  H     56.652400   46.987900   57.200000
  C     41.600000   52.443100   57.200000
  H     41.600000   53.074200   58.092400
  H     41.600000   53.074200   56.307600
  H     40.707600   51.812100   57.200000
  C     42.853300   51.556900   57.200000
  H     42.853300   50.925800   56.307600
  H     42.853300   50.925800   58.092400
  C     44.106600   52.443100   57.200000
  H     44.106600   53.074200   58.092400
  H     44.106600   53.074200   56.307600
  C     45.360000   51.556900   57.200000
  H     45.360000   50.925800   58.092400
  H     45.360000   50.925800   56.307600
  H     46.252400   52.187900   57.200000
  C     52.000000   52.443100   57.200000
  H     52.000000   53.074200   58.092400
  H     52.000000   53.074200   56.307600
  H     51.107600   51.812100   57.200000
  C     53.253300   51.556900   57.200000
  H     53.253300   50.925800   56.307600
  H     53.253300   50.925800   58.092400
  C     54.506600   52.443100   57.200000
  H     54.506600   53.074200   58.092400
  H     54.506600   53.074200   56.307600
  C     55.760000   51.556900   57.200000
  H     55.760000   50.925800   58.092400
  H     55.760000   50.925800   56.307600
  H     56.652400   52.187900   57.200000

 Total Charge           Charge          ....    0
 Multiplicity           Mult            ....    1
 Number of Electrons    NEL             ....  544
 Basis Dimension        Dim             .... 1696

ORBITAL ENERGIES
----------------

  NO   OCC          E(Eh)            E(eV)
   0   2.0000     -10.223499      -278.1956
   1   2.0000     -10.223412      -278.1932
   2   2.0000     -10.223379      -278.1923
   3   2.0000     -10.223372      -278.1921
   4   2.0000     -10.223281      -278.1896
   5   2.0000     -10.223252      -278.1888
   6   2.0000     -10.223196      -278.1873
   7   2.0000     -10.223171      -278.1866
   8   2.0000     -10.223144      -278.1859
   9   2.0000     -10.223080      -278.1842
  10   2.0000     -10.223046      -278.1832
  11   2.0000     -10.223017      -278.1824
  12   2.0000     -10.222957      -278.1808
  13   2.0000     -10.222953      -278.1807
  14   2.0000     -10.222906      -278.1794
  15   2.0000     -10.222882      -278.1788
  16   2.0000     -10.222838      -278.1776
  17   2.0000     -10.222832      -278.1774
  18   2.0000     -10.222803      -278.1766
  19   2.0000     -10.222796      -278.1764
  20   2.0000     -10.222781      -278.1760
  21   2.0000     -10.222763      -278.1755
  22   2.0000     -10.222735      -278.1748
  23   2.0000     -10.222718      -278.1743
  24   2.0000     -10.222699      -278.1738
  25   2.0000     -10.222688      -278.1735
  26   2.0000     -10.222674      -278.1731
  27   2.0000     -10.222648      -278.1724
  28   2.0000     -10.222568      -278.1702
  29   2.0000     -10.222525      -278.1690
  30   2.0000     -10.221749      -278.1479
  31   2.0000     -10.221647      -278.1452
  32   2.0000     -10.217946      -278.0444
  33   2.0000     -10.217926      -278.0439
  34   2.0000     -10.217782      -278.0400
  35   2.0000     -10.217738      -278.0388
  36   2.0000     -10.217731      -278.0386
  37   2.0000     -10.217715      -278.0382
  38   2.0000     -10.217713      -278.0381
  39   2.0000     -10.217636      -278.0360
  40   2.0000     -10.217619      -278.0356
  41   2.0000     -10.217599      -278.0350
  42   2.0000     -10.217593      -278.0349
  43   2.0000     -10.217563      -278.0340
  44   2.0000     -10.217456      -278.0311
  45   2.0000     -10.217448      -278.0309
  46   2.0000     -10.217424      -278.0302
  47   2.0000     -10.217419      -278.0301
  48   2.0000     -10.217372      -278.0288
  49   2.0000     -10.217360      -278.0285
  50   2.0000     -10.217351      -278.0282
  51   2.0000     -10.217339      -278.0279
  52   2.0000     -10.217310      -278.0271
  53   2.0000     -10.217294      -278.0267
  54   2.0000     -10.217246      -278.0254
  55   2.0000     -10.217226      -278.0249
  56   2.0000     -10.217195      -278.0240
  57   2.0000     -10.217139      -278.0225
  58   2.0000     -10.217116      -278.0218
  59   2.0000     -10.217091      -278.0212
  60   2.0000     -10.216931      -278.0168
  61   2.0000     -10.216821      -278.0138
  62   2.0000     -10.216415      -278.0028
  63   2.0000     -10.216248      -277.9982
  64   2.0000      -0.811201       -22.0739
  65   2.0000      -0.810979       -22.0679
  66   2.0000      -0.810816       -22.0634
  67   2.0000      -0.810797       -22.0629
  68   2.0000      -0.810739       -22.0613
  69   2.0000      -0.810604       -22.0576
  70   2.0000      -0.810592       -22.0573
  71   2.0000      -0.810485       -22.0544
  72   2.0000      -0.810443       -22.0533
  73   2.0000      -0.810394       -22.0519
  74   2.0000      -0.810270       -22.0486
  75   2.0000      -0.810198       -22.0466
  76   2.0000      -0.810165       -22.0457
  77   2.0000      -0.809954       -22.0400
  78   2.0000      -0.809947       -22.0398
  79   2.0000      -0.809314       -22.0226
  80   2.0000      -0.735502       -20.0140
  81   2.0000      -0.735319       -20.0091
  82   2.0000      -0.735180       -20.0053
  83   2.0000      -0.735168       -20.0049
  84   2.0000      -0.735107       -20.0033
  85   2.0000      -0.734999       -20.0004
  86   2.0000      -0.734959       -19.9992
  87   2.0000      -0.734881       -19.9971
  88   2.0000      -0.734848       -19.9962
  89   2.0000      -0.734745       -19.9934
  90   2.0000      -0.734696       -19.9921
  91   2.0000      -0.734625       -19.9902
  92   2.0000      -0.734593       -19.9893
  93   2.0000      -0.734400       -19.9840
  94   2.0000      -0.734384       -19.9836
  95   2.0000      -0.733793       -19.9675
  96   2.0000      -0.635526       -17.2935
  97   2.0000      -0.635354       -17.2889
  98   2.0000      -0.635314       -17.2878
  99   2.0000      -0.635305       -17.2875
 100   2.0000      -0.635209       -17.2849
 101   2.0000      -0.635115       -17.2824
 102   2.0000      -0.635015       -17.2796
 103   2.0000      -0.634997       -17.2791
 104   2.0000      -0.634955       -17.2780
 105   2.0000      -0.634897       -17.2764
 106   2.0000      -0.634832       -17.2747
 107   2.0000      -0.634773       -17.2730
 108   2.0000      -0.634740       -17.2722
 109   2.0000      -0.634656       -17.2699
 110   2.0000      -0.634582       -17.2679
 111   2.0000      -0.633957       -17.2509
 112   2.0000      -0.588009       -16.0005
 113   2.0000      -0.587388       -15.9837
 114   2.0000      -0.587077       -15.9752
 115   2.0000      -0.587064       -15.9748
 116   2.0000      -0.586519       -15.9600
 117   2.0000      -0.586510       -15.9598
 118   2.0000      -0.586033       -15.9468
 119   2.0000      -0.585753       -15.9392
 120   2.0000      -0.584827       -15.9140
 121   2.0000      -0.584792       -15.9130
 122   2.0000      -0.584466       -15.9041
 123   2.0000      -0.584383       -15.9019
 124   2.0000      -0.583919       -15.8892
 125   2.0000      -0.583535       -15.8788
 126   2.0000      -0.583029       -15.8650
 127   2.0000      -0.582992       -15.8640
 128   2.0000      -0.489039       -13.3074
 129   2.0000      -0.488286       -13.2869
 130   2.0000      -0.488092       -13.2817
 131   2.0000      -0.487530       -13.2664
 132   2.0000      -0.487144       -13.2559
 133   2.0000      -0.487107       -13.2549
 134   2.0000      -0.486855       -13.2480
 135   2.0000      -0.486333       -13.2338
 136   2.0000      -0.485934       -13.2229
 137   2.0000      -0.485802       -13.2194
 138   2.0000      -0.485471       -13.2103
 139   2.0000      -0.485324       -13.2063
 140   2.0000      -0.485034       -13.1984
 141   2.0000      -0.484827       -13.1928
 142   2.0000      -0.484246       -13.1770
 143   2.0000      -0.484223       -13.1764
 144   2.0000      -0.440824       -11.9954
 145   2.0000      -0.440373       -11.9832
 146   2.0000      -0.440179       -11.9779
 147   2.0000      -0.440031       -11.9738
 148   2.0000      -0.439658       -11.9637
 149   2.0000      -0.439646       -11.9634
 150   2.0000      -0.439316       -11.9544
 151   2.0000      -0.439109       -11.9488
 152   2.0000      -0.438309       -11.9270
 153   2.0000      -0.438211       -11.9243
 154   2.0000      -0.438091       -11.9211
 155   2.0000      -0.437999       -11.9186
 156   2.0000      -0.437564       -11.9067
 157   2.0000      -0.437251       -11.8982
 158   2.0000      -0.436874       -11.8879
 159   2.0000      -0.436751       -11.8846
 160   2.0000      -0.426791       -11.6136
 161   2.0000      -0.426666       -11.6102
 162   2.0000      -0.426481       -11.6051
 163   2.0000      -0.426394       -11.6028
 164   2.0000      -0.426374       -11.6022
 165   2.0000      -0.426258       -11.5991
 166   2.0000      -0.426199       -11.5975
 167   2.0000      -0.426151       -11.5962
 168   2.0000      -0.426105       -11.5949
 169   2.0000      -0.426020       -11.5926
 170   2.0000      -0.425882       -11.5888
 171   2.0000      -0.425857       -11.5882
 172   2.0000      -0.425747       -11.5852
 173   2.0000      -0.425704       -11.5840
 174   2.0000      -0.425583       -11.5807
 175   2.0000      -0.425483       -11.5780
 176   2.0000      -0.425280       -11.5725
 177   2.0000      -0.425224       -11.5709
 178   2.0000      -0.424997       -11.5648
 179   2.0000      -0.424772       -11.5586
 180   2.0000      -0.424524       -11.5519
 181   2.0000      -0.424454       -11.5500
 182   2.0000      -0.424171       -11.5423
 183   2.0000      -0.423781       -11.5317
 184   2.0000      -0.423538       -11.5250
 185   2.0000      -0.423122       -11.5137
 186   2.0000      -0.422841       -11.5061
 187   2.0000      -0.422839       -11.5060
 188   2.0000      -0.422589       -11.4992
 189   2.0000      -0.422516       -11.4973
 190   2.0000      -0.422109       -11.4862
 191   2.0000      -0.422055       -11.4847
 192   2.0000      -0.377813       -10.2808
 193   2.0000      -0.377471       -10.2715
 194   2.0000      -0.377452       -10.2710
 195   2.0000      -0.377382       -10.2691
 196   2.0000      -0.377221       -10.2647
 197   2.0000      -0.377154       -10.2629
 198   2.0000      -0.377064       -10.2604
 199   2.0000      -0.376970       -10.2579
 200   2.0000      -0.376847       -10.2545
 201   2.0000      -0.376827       -10.2540
 202   2.0000      -0.376738       -10.2515
 203   2.0000      -0.376635       -10.2487
 204   2.0000      -0.376562       -10.2468
 205   2.0000      -0.376341       -10.2408
 206   2.0000      -0.376306       -10.2398
 207   2.0000      -0.375897       -10.2287
 208   2.0000      -0.363146        -9.8817
 209   2.0000      -0.362541        -9.8652
 210   2.0000      -0.362460        -9.8630
 211   2.0000      -0.362036        -9.8515
 212   2.0000      -0.361762        -9.8441
 213   2.0000      -0.361713        -9.8427
 214   2.0000      -0.361488        -9.8366
 215   2.0000      -0.361091        -9.8258
 216   2.0000      -0.360821        -9.8184
 217   2.0000      -0.360595        -9.8123
 218   2.0000      -0.360264        -9.8033
 219   2.0000      -0.360262        -9.8032
 220   2.0000      -0.359950        -9.7947
 221   2.0000      -0.359903        -9.7935
 222   2.0000      -0.359474        -9.7818
 223   2.0000      -0.359424        -9.7804
 224   2.0000      -0.348044        -9.4708
 225   2.0000      -0.346429        -9.4268
 226   2.0000      -0.346412        -9.4264
 227   2.0000      -0.345199        -9.3933
 228   2.0000      -0.344658        -9.3786
 229   2.0000      -0.344636        -9.3780
 230   2.0000      -0.343172        -9.3382
 231   2.0000      -0.342783        -9.3276
 232   2.0000      -0.342295        -9.3143
 233   2.0000      -0.341438        -9.2910
 234   2.0000      -0.341341        -9.2884
 235   2.0000      -0.340739        -9.2720
 236   2.0000      -0.340586        -9.2678
 237   2.0000      -0.340404        -9.2629
 238   2.0000      -0.339402        -9.2356
 239   2.0000      -0.339357        -9.2344
 240   2.0000      -0.339152        -9.2288
 241   2.0000      -0.338814        -9.2196
 242   2.0000      -0.338750        -9.2179
 243   2.0000      -0.338121        -9.2007
 244   2.0000      -0.337994        -9.1973
 245   2.0000      -0.337715        -9.1897
 246   2.0000      -0.337612        -9.1869
 247   2.0000      -0.337604        -9.1867
 248   2.0000      -0.337037        -9.1712
 249   2.0000      -0.337034        -9.1712
 250   2.0000      -0.336467        -9.1557
 251   2.0000      -0.336129        -9.1465
 252   2.0000      -0.335899        -9.1403
 253   2.0000      -0.335655        -9.1336
 254   2.0000      -0.334430        -9.1003
 255   2.0000      -0.334020        -9.0891
 256   2.0000      -0.323890        -8.8135
 257   2.0000      -0.323788        -8.8107
 258   2.0000      -0.323642        -8.8067
 259   2.0000      -0.323591        -8.8054
 260   2.0000      -0.323551        -8.8043
 261   2.0000      -0.323463        -8.8019
 262   2.0000      -0.323388        -8.7998
 263   2.0000      -0.323331        -8.7983
 264   2.0000      -0.323296        -8.7973
 265   2.0000      -0.323238        -8.7958
 266   2.0000      -0.323151        -8.7934
 267   2.0000      -0.323085        -8.7916
 268   2.0000      -0.323003        -8.7894
 269   2.0000      -0.322882        -8.7861
 270   2.0000      -0.322808        -8.7841
 271   2.0000      -0.322248        -8.7688
 272   0.0000       0.012372         0.3367
 273   0.0000       0.017842         0.4855
 274   0.0000       0.019952         0.5429
 275   0.0000       0.023758         0.6465
 276   0.0000       0.031061         0.8452

MULLIKEN ATOMIC CHARGES
-----------------------
   0 C :   -0.059070
   1 H :    0.037897
   2 H :    0.037055
   3 H :    0.038193
   4 C :   -0.123427
   5 H :    0.034299
   6 H :    0.034960
   7 C :   -0.128842
   8 H :    0.037975
   9 H :    0.037011
  10 C :   -0.057181
  11 H :    0.036279
  12 H :    0.035606
  13 H :    0.039257
  14 C :   -0.059138
  15 H :    0.037782
  16 H :    0.037025
  17 H :    0.038084
  18 C :   -0.123371
  19 H :    0.034290
  20 H :    0.034992
  21 C :   -0.128866
  22 H :    0.038034
  23 H :    0.036947
  24 C :   -0.057194
  25 H :    0.036384
  26 H :    0.035495
  27 H :    0.039535
  28 C :   -0.059056
  29 H :    0.037514
  30 H :    0.036623
  31 H :    0.039378
  32 C :   -0.128681
  33 H :    0.036750
  34 H :    0.037700
  35 C :   -0.128703
  36 H :    0.037593
  37 H :    0.036712
  38 C :   -0.059029
  39 H :    0.037517
  40 H :    0.036780
  41 H :    0.038916
  42 C :   -0.057048
  43 H :    0.035908
  44 H :    0.035632
  45 H :    0.039256
  46 C :   -0.128777
  47 H :    0.037081
  48 H :    0.038033
  49 C :   -0.123266
  50 H :    0.034347
  51 H :    0.034325
  52 C :   -0.059201
  53 H :    0.037993
  54 H :    0.037021
  55 H :    0.038626
  56 C :   -0.059136
  57 H :    0.037506
  58 H :    0.036610
  59 H :    0.039316
  60 C :   -0.128639
  61 H :    0.036808
  62 H :    0.037754
  63 C :   -0.128742
  64 H :    0.037615
  65 H :    0.036734
  66 C :   -0.059000
  67 H :    0.037499
  68 H :    0.036799
  69 H :    0.038877
  70 C :   -0.057153
  71 H :    0.036313
  72 H :    0.035599
  73 H :    0.039213
  74 C :   -0.128834
  75 H :    0.037034
  76 H :    0.038037
  77 C :   -0.123442
  78 H :    0.034998
  79 H :    0.034373
  80 C :   -0.059148
  81 H :    0.037773
  82 H :    0.037072
  83 H :    0.038167
  84 C :   -0.059027
  85 H :    0.036856
  86 H :    0.037877
  87 H :    0.038275
  88 C :   -0.123376
  89 H :    0.034993
  90 H :    0.034428
  91 C :   -0.128803
  92 H :    0.036584
  93 H :    0.037939
  94 C :   -0.057155
  95 H :    0.035762
  96 H :    0.036272
  97 H :    0.039333
  98 C :   -0.059057
  99 H :    0.036849
 100 H :    0.037751
 101 H :    0.038111
 102 C :   -0.123343
 103 H :    0.034961
 104 H :    0.034398
 105 C :   -0.128770
 106 H :    0.036630
 107 H :    0.037981
 108 C :   -0.057181
 109 H :    0.035651
 110 H :    0.036283
 111 H :    0.039682
 112 C :   -0.060389
 113 H :    0.037549
 114 H :    0.037770
 115 H :    0.039911
 116 C :   -0.130661
 117 H :    0.038141
 118 H :    0.038179
 119 C :   -0.131096
 120 H :    0.037855
 121 H :    0.037989
 122 C :   -0.060192
 123 H :    0.037835
 124 H :    0.037816
 125 H :    0.039394
 126 C :   -0.060105
 127 H :    0.037780
 128 H :    0.037910
 129 H :    0.039101
 130 C :   -0.130895
 131 H :    0.037867
 132 H :    0.037990
 133 C :   -0.130462
 134 H :    0.038225
 135 H :    0.038307
 136 C :   -0.060369
 137 H :    0.037662
 138 H :    0.037627
 139 H :    0.039719
 140 C :   -0.060243
 141 H :    0.037781
 142 H :    0.037734
 143 H :    0.039936
 144 C :   -0.131071
 145 H :    0.038077
 146 H :    0.037960
 147 C :   -0.130683
 148 H :    0.038167
 149 H :    0.038041
 150 C :   -0.060326
 151 H :    0.037605
 152 H :    0.037755
 153 H :    0.039361
 154 C :   -0.056128
 155 H :    0.035459
 156 H :    0.035532
 157 H :    0.038716
 158 C :   -0.126239
 159 H :    0.036249
 160 H :    0.036145
 161 C :   -0.121740
 162 H :    0.034062
 163 H :    0.034202
 164 C :   -0.057760
 165 H :    0.036534
 166 H :    0.036675
 167 H :    0.038206
 168 C :   -0.057238
 169 H :    0.035707
 170 H :    0.036189
 171 H :    0.039643
 172 C :   -0.128761
 173 H :    0.037958
 174 H :    0.036650
 175 C :   -0.123377
 176 H :    0.034483
 177 H :    0.034990
 178 C :   -0.059094
 179 H :    0.036852
 180 H :    0.037732
 181 H :    0.038217
 182 C :   -0.059062
 183 H :    0.037131
 184 H :    0.037996
 185 H :    0.038352
 186 C :   -0.123269
 187 H :    0.034238
 188 H :    0.034362
 189 C :   -0.128836
 190 H :    0.037132
 191 H :    0.038003
 192 C :   -0.057060
 193 H :    0.035698
 194 H :    0.035876
 195 H :    0.039378
 196 C :   -0.057141
 197 H :    0.036033
 198 H :    0.036315
 199 H :    0.038605
 200 C :   -0.123329
 201 H :    0.034546
 202 H :    0.034670
 203 C :   -0.123352
 204 H :    0.034723
 205 H :    0.034740
 206 C :   -0.057225
 207 H :    0.035884
 208 H :    0.036290
 209 H :    0.039094
 210 C :   -0.057148
 211 H :    0.035540
 212 H :    0.035849
 213 H :    0.039734
 214 C :   -0.128780
 215 H :    0.038091
 216 H :    0.037170
 217 C :   -0.123280
 218 H :    0.034381
 219 H :    0.034164
 220 C :   -0.059125
 221 H :    0.037194
 222 H :    0.037875
 223 H :    0.038265
Sum of atomic charges:   -0.0000000

LOEWDIN ATOMIC CHARGES
----------------------
   0 C :   -0.070109
   1 H :    0.024576
   2 H :    0.025254
   3 H :    0.025734
   4 C :   -0.049787
   5 H :    0.022711
   6 H :    0.021913
   7 C :   -0.050033
   8 H :    0.021468
   9 H :    0.022378
  10 C :   -0.070106
  11 H :    0.024702
  12 H :    0.025326
  13 H :    0.025972
  14 C :   -0.070177
  15 H :    0.024528
  16 H :    0.025236
  17 H :    0.025676
  18 C :   -0.049771
  19 H :    0.022710
  20 H :    0.021931
  21 C :   -0.050037
  22 H :    0.021491
  23 H :    0.022353
  24 C :   -0.070053
  25 H :    0.024749
  26 H :    0.025284
  27 H :    0.026081
  28 C :   -0.069874
  29 H :    0.024459
  30 H :    0.025106
  31 H :    0.026176
  32 C :   -0.049474
  33 H :    0.022332
  34 H :    0.021419
  35 C :   -0.049488
  36 H :    0.021369
  37 H :    0.022307
  38 C :   -0.069931
  39 H :    0.024458
  40 H :    0.025168
  41 H :    0.025990
  42 C :   -0.070101
  43 H :    0.024565
  44 H :    0.025336
  45 H :    0.025978
  46 C :   -0.050040
  47 H :    0.022424
  48 H :    0.021497
  49 C :   -0.049760
  50 H :    0.021702
  51 H :    0.022715
  52 C :   -0.070085
  53 H :    0.024619
  54 H :    0.025245
  55 H :    0.025890
  56 C :   -0.069919
  57 H :    0.024454
  58 H :    0.025097
  59 H :    0.026146
  60 C :   -0.049444
  61 H :    0.022356
  62 H :    0.021440
  63 C :   -0.049493
  64 H :    0.021378
  65 H :    0.022317
  66 C :   -0.069926
  67 H :    0.024451
  68 H :    0.025176
  69 H :    0.025977
  70 C :   -0.070096
  71 H :    0.024719
  72 H :    0.025323
  73 H :    0.025963
  74 C :   -0.050031
  75 H :    0.022389
  76 H :    0.021493
  77 C :   -0.049761
  78 H :    0.021928
  79 H :    0.022739
  80 C :   -0.070162
  81 H :    0.024522
  82 H :    0.025255
  83 H :    0.025711
  84 C :   -0.070100
  85 H :    0.025179
  86 H :    0.024563
  87 H :    0.025774
  88 C :   -0.049770
  89 H :    0.021935
  90 H :    0.022764
  91 C :   -0.050044
  92 H :    0.022221
  93 H :    0.021447
  94 C :   -0.070078
  95 H :    0.025394
  96 H :    0.024702
  97 H :    0.026007
  98 C :   -0.070167
  99 H :    0.025173
 100 H :    0.024511
 101 H :    0.025690
 102 C :   -0.049765
 103 H :    0.021924
 104 H :    0.022755
 105 C :   -0.050023
 106 H :    0.022243
 107 H :    0.021467
 108 C :   -0.070029
 109 H :    0.025353
 110 H :    0.024708
 111 H :    0.026146
 112 C :   -0.069633
 113 H :    0.024565
 114 H :    0.024665
 115 H :    0.026475
 116 C :   -0.049329
 117 H :    0.021696
 118 H :    0.021785
 119 C :   -0.049388
 120 H :    0.021561
 121 H :    0.021618
 122 C :   -0.069673
 123 H :    0.024723
 124 H :    0.024684
 125 H :    0.026262
 126 C :   -0.069706
 127 H :    0.024702
 128 H :    0.024761
 129 H :    0.026131
 130 C :   -0.049399
 131 H :    0.021573
 132 H :    0.021696
 133 C :   -0.049300
 134 H :    0.021806
 135 H :    0.021841
 136 C :   -0.069676
 137 H :    0.024648
 138 H :    0.024600
 139 H :    0.026383
 140 C :   -0.069605
 141 H :    0.024706
 142 H :    0.024654
 143 H :    0.026481
 144 C :   -0.049363
 145 H :    0.021657
 146 H :    0.021608
 147 C :   -0.049343
 148 H :    0.021776
 149 H :    0.021652
 150 C :   -0.069709
 151 H :    0.024587
 152 H :    0.024654
 153 H :    0.026252
 154 C :   -0.070338
 155 H :    0.025173
 156 H :    0.025204
 157 H :    0.025679
 158 C :   -0.050164
 159 H :    0.021994
 160 H :    0.021951
 161 C :   -0.049874
 162 H :    0.022525
 163 H :    0.022582
 164 C :   -0.070324
 165 H :    0.024938
 166 H :    0.025000
 167 H :    0.025652
 168 C :   -0.070068
 169 H :    0.025373
 170 H :    0.024669
 171 H :    0.026121
 172 C :   -0.050027
 173 H :    0.021458
 174 H :    0.022252
 175 C :   -0.049751
 176 H :    0.022786
 177 H :    0.021933
 178 C :   -0.070162
 179 H :    0.025172
 180 H :    0.024500
 181 H :    0.025736
 182 C :   -0.070076
 183 H :    0.025292
 184 H :    0.024621
 185 H :    0.025805
 186 C :   -0.049786
 187 H :    0.021659
 188 H :    0.022729
 189 C :   -0.050036
 190 H :    0.022442
 191 H :    0.021479
 192 C :   -0.070082
 193 H :    0.025362
 194 H :    0.024552
 195 H :    0.026030
 196 C :   -0.070297
 197 H :    0.025481
 198 H :    0.024698
 199 H :    0.025741
 200 C :   -0.050339
 201 H :    0.021733
 202 H :    0.022819
 203 C :   -0.050304
 204 H :    0.022844
 205 H :    0.021809
 206 C :   -0.070255
 207 H :    0.025418
 208 H :    0.024690
 209 H :    0.025929
 210 C :   -0.070076
 211 H :    0.025296
 212 H :    0.024543
 213 H :    0.026164
 214 C :   -0.050011
 215 H :    0.021519
 216 H :    0.022465
 217 C :   -0.049783
 218 H :    0.022734
 219 H :    0.021627
 220 C :   -0.070128
 221 H :    0.025314
 222 H :    0.024568
 223 H :    0.025755

  Mayer bond orders larger than 0.100000
B(  0-C ,  1-H ) :   0.9719 B(  0-C ,  2-H ) :   0.9716 B(  0-C ,  3-H ) :   0.9695
B(  0-C ,  4-C ) :   1.0898 B(  4-C ,  5-H ) :   0.9532 B(  4-C ,  6-H ) :   0.9533
B(  4-C ,  7-C ) :   1.0675 B(  7-C ,  8-H ) :   0.9530 B(  7-C ,  9-H ) :   0.9530
B(  7-C , 10-C ) :   1.0893 B( 10-C , 11-H ) :   0.9720 B( 10-C , 12-H ) :   0.9717
B( 10-C , 13-H ) :   0.9702 B( 14-C , 15-H ) :   0.9719 B( 14-C , 16-H ) :   0.9716
B( 14-C , 17-H ) :   0.9695 B( 14-C , 18-C ) :   1.0898 B( 18-C , 19-H ) :   0.9532
B( 18-C , 20-H ) :   0.9533 B( 18-C , 21-C ) :   1.0675 B( 21-C , 22-H ) :   0.9530
B( 21-C , 23-H ) :   0.9530 B( 21-C , 24-C ) :   1.0893 B( 24-C , 25-H ) :   0.9720
B( 24-C , 26-H ) :   0.9717 B( 24-C , 27-H ) :   0.9702 B( 28-C , 29-H ) :   0.9716
B( 28-C , 30-H ) :   0.9714 B( 28-C , 31-H ) :   0.9694 B( 28-C , 32-C ) :   1.0896
B( 32-C , 33-H ) :   0.9526 B( 32-C , 34-H ) :   0.9525 B( 32-C , 35-C ) :   1.0673
B( 35-C , 36-H ) :   0.9525 B( 35-C , 37-H ) :   0.9526 B( 35-C , 38-C ) :   1.0896
B( 38-C , 39-H ) :   0.9716 B( 38-C , 40-H ) :   0.9714 B( 38-C , 41-H ) :   0.9694
B( 42-C , 43-H ) :   0.9719 B( 42-C , 44-H ) :   0.9717 B( 42-C , 45-H ) :   0.9702
B( 42-C , 46-C ) :   1.0893 B( 46-C , 47-H ) :   0.9530 B( 46-C , 48-H ) :   0.9530
B( 46-C , 49-C ) :   1.0675 B( 49-C , 50-H ) :   0.9532 B( 49-C , 51-H ) :   0.9532
B( 49-C , 52-C ) :   1.0899 B( 52-C , 53-H ) :   0.9719 B( 52-C , 54-H ) :   0.9716
B( 52-C , 55-H ) :   0.9694 B( 56-C , 57-H ) :   0.9716 B( 56-C , 58-H ) :   0.9714
B( 56-C , 59-H ) :   0.9694 B( 56-C , 60-C ) :   1.0896 B( 60-C , 61-H ) :   0.9526
B( 60-C , 62-H ) :   0.9525 B( 60-C , 63-C ) :   1.0673 B( 63-C , 64-H ) :   0.9525
B( 63-C , 65-H ) :   0.9526 B( 63-C , 66-C ) :   1.0896 B( 66-C , 67-H ) :   0.9716
B( 66-C , 68-H ) :   0.9714 B( 66-C , 69-H ) :   0.9694 B( 70-C , 71-H ) :   0.9720
B( 70-C , 72-H ) :   0.9717 B( 70-C , 73-H ) :   0.9702 B( 70-C , 74-C ) :   1.0894
B( 74-C , 75-H ) :   0.9530 B( 74-C , 76-H ) :   0.9530 B( 74-C , 77-C ) :   1.0675
B( 77-C , 78-H ) :   0.9533 B( 77-C , 79-H ) :   0.9532 B( 77-C , 80-C ) :   1.0898
B( 80-C , 81-H ) :   0.9719 B( 80-C , 82-H ) :   0.9716 B( 80-C , 83-H ) :   0.9695
B( 84-C , 85-H ) :   0.9716 B( 84-C , 86-H ) :   0.9719 B( 84-C , 87-H ) :   0.9695
B( 84-C , 88-C ) :   1.0898 B( 88-C , 89-H ) :   0.9533 B( 88-C , 90-H ) :   0.9532
B( 88-C , 91-C ) :   1.0676 B( 91-C , 92-H ) :   0.9529 B( 91-C , 93-H ) :   0.9530
B( 91-C , 94-C ) :   1.0894 B( 94-C , 95-H ) :   0.9717 B( 94-C , 96-H ) :   0.9720
B( 94-C , 97-H ) :   0.9702 B( 98-C , 99-H ) :   0.9716 B( 98-C ,100-H ) :   0.9719
B( 98-C ,101-H ) :   0.9695 B( 98-C ,102-C ) :   1.0898 B(102-C ,103-H ) :   0.9533
B(102-C ,104-H ) :   0.9532 B(102-C ,105-C ) :   1.0675 B(105-C ,106-H ) :   0.9529
B(105-C ,107-H ) :   0.9530 B(105-C ,108-C ) :   1.0894 B(108-C ,109-H ) :   0.9717
B(108-C ,110-H ) :   0.9720 B(108-C ,111-H ) :   0.9702 B(112-C ,113-H ) :   0.9711
B(112-C ,114-H ) :   0.9711 B(112-C ,115-H ) :   0.9692 B(112-C ,116-C ) :   1.0898
B(116-C ,117-H ) :   0.9520 B(116-C ,118-H ) :   0.9521 B(116-C ,119-C ) :   1.0674
B(119-C ,120-H ) :   0.9520 B(119-C ,121-H ) :   0.9520 B(119-C ,122-C ) :   1.0899
B(122-C ,123-H ) :   0.9711 B(122-C ,124-H ) :   0.9711 B(122-C ,125-H ) :   0.9692
B(126-C ,127-H ) :   0.9711 B(126-C ,128-H ) :   0.9711 B(126-C ,129-H ) :   0.9692
B(126-C ,130-C ) :   1.0898 B(130-C ,131-H ) :   0.9520 B(130-C ,132-H ) :   0.9522
B(130-C ,133-C ) :   1.0673 B(133-C ,134-H ) :   0.9522 B(133-C ,135-H ) :   0.9522
B(133-C ,136-C ) :   1.0897 B(136-C ,137-H ) :   0.9711 B(136-C ,138-H ) :   0.9711
B(136-C ,139-H ) :   0.9692 B(140-C ,141-H ) :   0.9711 B(140-C ,142-H ) :   0.9711
B(140-C ,143-H ) :   0.9692 B(140-C ,144-C ) :   1.0899 B(144-C ,145-H ) :   0.9520
B(144-C ,146-H ) :   0.9520 B(144-C ,147-C ) :   1.0674 B(147-C ,148-H ) :   0.9521
B(147-C ,149-H ) :   0.9520 B(147-C ,150-C ) :   1.0898 B(150-C ,151-H ) :   0.9711
B(150-C ,152-H ) :   0.9711 B(150-C ,153-H ) :   0.9692 B(154-C ,155-H ) :   0.9722
B(154-C ,156-H ) :   0.9722 B(154-C ,157-H ) :   0.9703 B(154-C ,158-C ) :   1.0891
B(158-C ,159-H ) :   0.9535 B(158-C ,160-H ) :   0.9535 B(158-C ,161-C ) :   1.0674
B(161-C ,162-H ) :   0.9538 B(161-C ,163-H ) :   0.9538 B(161-C ,164-C ) :   1.0896
B(164-C ,165-H ) :   0.9721 B(164-C ,166-H ) :   0.9721 B(164-C ,167-H ) :   0.9696
B(168-C ,169-H ) :   0.9717 B(168-C ,170-H ) :   0.9720 B(168-C ,171-H ) :   0.9702
B(168-C ,172-C ) :   1.0894 B(172-C ,173-H ) :   0.9530 B(172-C ,174-H ) :   0.9529
B(172-C ,175-C ) :   1.0675 B(175-C ,176-H ) :   0.9532 B(175-C ,177-H ) :   0.9533
B(175-C ,178-C ) :   1.0898 B(178-C ,179-H ) :   0.9716 B(178-C ,180-H ) :   0.9719
B(178-C ,181-H ) :   0.9695 B(182-C ,183-H ) :   0.9716 B(182-C ,184-H ) :   0.9719
B(182-C ,185-H ) :   0.9695 B(182-C ,186-C ) :   1.0899 B(186-C ,187-H ) :   0.9532
B(186-C ,188-H ) :   0.9532 B(186-C ,189-C ) :   1.0676 B(189-C ,190-H ) :   0.9530
B(189-C ,191-H ) :   0.9530 B(189-C ,192-C ) :   1.0893 B(192-C ,193-H ) :   0.9717
B(192-C ,194-H ) :   0.9719 B(192-C ,195-H ) :   0.9702 B(196-C ,197-H ) :   0.9719
B(196-C ,198-H ) :   0.9722 B(196-C ,199-H ) :   0.9703 B(196-C ,200-C ) :   1.0896
B(200-C ,201-H ) :   0.9537 B(200-C ,202-H ) :   0.9536 B(200-C ,203-C ) :   1.0678
B(203-C ,204-H ) :   0.9536 B(203-C ,205-H ) :   0.9537 B(203-C ,206-C ) :   1.0896
B(206-C ,207-H ) :   0.9719 B(206-C ,208-H ) :   0.9722 B(206-C ,209-H ) :   0.9703
B(210-C ,211-H ) :   0.9717 B(210-C ,212-H ) :   0.9719 B(210-C ,213-H ) :   0.9702
B(210-C ,214-C ) :   1.0894 B(214-C ,215-H ) :   0.9530 B(214-C ,216-H ) :   0.9530
B(214-C ,217-C ) :   1.0675 B(217-C ,218-H ) :   0.9532 B(217-C ,219-H ) :   0.9532
B(217-C ,220-C ) :   1.0899 B(220-C ,221-H ) :   0.9716 B(220-C ,222-H ) :   0.9719
B(220-C ,223-H ) :   0.9694

FINAL SINGLE POINT ENERGY     -2530.190057162803

DIPOLE MOMENT
-------------

Method             : SCF
Type of density    : Electron Density
Multiplicity       :   1
Irrep              :   0
Energy             : -2530.1900571628029866 Eh
Relativity type    :
Basis              : AO
                                X                 Y                 Z
Electronic contribution:     -0.000059576      -0.000496481       0.001416177
Nuclear contribution   :      0.000620381       0.000000000       0.000000000
                        -----------------------------------------
Total Dipole Moment    :      0.000560805      -0.000496481       0.001416178
                        -----------------------------------------
Magnitude (a.u.)       :      0.001602047
Magnitude (Debye)      :      0.004072079

Rotational constants in cm-1:             0.000520             0.000406             0.000353
Rotational constants in MHz :            15.579744            12.159088            10.590581

                             ****ORCA TERMINATED NORMALLY****
TOTAL RUN TIME: 0 days 0 hours 5 minutes 25 seconds 534 msec
